# vlib /home/speedy/repos/courses/hw_crypto/hw2/verilog/testbenches/work
# ** Warning: (vlib-34) Library already exists at "/home/speedy/repos/courses/hw_crypto/hw2/verilog/testbenches/work".
#  vmap work /home/speedy/repos/courses/hw_crypto/hw2/verilog/testbenches/work
# Model Technology ModelSim - Intel FPGA Edition vmap 2020.1 Lib Mapping Utility 2020.02 Feb 28 2020
# vmap work /home/speedy/repos/courses/hw_crypto/hw2/verilog/testbenches/work 
# Modifying modelsim.ini
#  vsim work.TB_MasMult
# vsim work.TB_MasMult 
# Start time: 20:46:05 on Feb 21,2024
# Loading work.TB_MasMult
# Loading work.MasMult
# Loading work.MM
#  add wave -r /*
#  run -all
# Time	Clk	A	B	Z
# 
# 0	0	xxx	xxx	000
# 
# 5	1	xxx	xxx	000
# 
# 10	0	xxx	xxx	000
# 
# 15	1	xxx	xxx	000
# 
# 20	0	xxx	xxx	000
# 
# 25	1	000	000	000
# 
# 30	0	000	000	000
# 
# 35	1	000	000	000
# 
# 40	0	000	000	000
# 
# 45	1	000	000	000
# 
# 50	0	000	000	000
# 
# 55	1	000	000	000
# 
# 60	0	001	000	000
# 
# 65	1	001	000	000
# 
# 70	0	001	000	000
# 
# 75	1	001	000	000
# 
# 80	0	001	000	000
# 
# 85	1	001	000	000
# 
# 90	0	001	000	000
# 
# 95	1	001	000	000
# 
# 100	0	010	000	000
# 
# 105	1	010	000	000
# 
# 110	0	010	000	000
# 
# 115	1	010	000	000
# 
# 120	0	010	000	000
# 
# 125	1	010	000	000
# 
# 130	0	010	000	000
# 
# 135	1	010	000	000
# 
# 140	0	011	000	000
# 
# 145	1	011	000	000
# 
# 150	0	011	000	000
# 
# 155	1	011	000	000
# 
# 160	0	011	000	000
# 
# 165	1	011	000	000
# 
# 170	0	011	000	000
# 
# 175	1	011	000	000
# 
# 180	0	100	000	000
# 
# 185	1	100	000	000
# 
# 190	0	100	000	000
# 
# 195	1	100	000	000
# 
# 200	0	100	000	000
# 
# 205	1	100	000	000
# 
# 210	0	100	000	000
# 
# 215	1	100	000	000
# 
# 220	0	101	000	000
# 
# 225	1	101	000	000
# 
# 230	0	101	000	000
# 
# 235	1	101	000	000
# 
# 240	0	101	000	000
# 
# 245	1	101	000	000
# 
# 250	0	101	000	000
# 
# 255	1	101	000	000
# 
# 260	0	110	000	000
# 
# 265	1	110	000	000
# 
# 270	0	110	000	000
# 
# 275	1	110	000	000
# 
# 280	0	110	000	000
# 
# 285	1	110	000	000
# 
# 290	0	110	000	000
# 
# 295	1	110	000	000
# 
# 300	0	111	000	000
# 
# 305	1	111	000	000
# 
# 310	0	111	000	000
# 
# 315	1	111	000	000
# 
# 320	0	111	000	000
# 
# 325	1	111	000	000
# 
# 330	0	111	000	000
# 
# 335	1	111	000	000
# 
# 340	0	000	001	000
# 
# 345	1	000	001	000
# 
# 350	0	000	001	000
# 
# 355	1	000	001	000
# 
# 360	0	000	001	000
# 
# 365	1	000	001	000
# 
# 370	0	000	001	000
# 
# 375	1	000	001	000
# 
# 380	0	001	001	000
# 
# 385	1	001	001	000
# 
# 390	0	001	001	000
# 
# 395	1	001	001	000
# 
# 400	0	001	001	000
# 
# 405	1	001	001	000
# 
# 410	0	001	001	000
# 
# 415	1	001	001	000
# 
# 420	0	010	001	000
# 
# 425	1	010	001	000
# 
# 430	0	010	001	000
# 
# 435	1	010	001	000
# 
# 440	0	010	001	000
# 
# 445	1	010	001	000
# 
# 450	0	010	001	000
# 
# 455	1	010	001	000
# 
# 460	0	011	001	000
# 
# 465	1	011	001	000
# 
# 470	0	011	001	000
# 
# 475	1	011	001	000
# 
# 480	0	011	001	000
# 
# 485	1	011	001	000
# 
# 490	0	011	001	000
# 
# 495	1	011	001	000
# 
# 500	0	100	001	000
# 
# 505	1	100	001	000
# 
# 510	0	100	001	000
# 
# 515	1	100	001	000
# 
# 520	0	100	001	000
# 
# 525	1	100	001	000
# 
# 530	0	100	001	000
# 
# 535	1	100	001	000
# 
# 540	0	101	001	000
# 
# 545	1	101	001	000
# 
# 550	0	101	001	000
# 
# 555	1	101	001	000
# 
# 560	0	101	001	000
# 
# 565	1	101	001	000
# 
# 570	0	101	001	000
# 
# 575	1	101	001	000
# 
# 580	0	110	001	000
# 
# 585	1	110	001	000
# 
# 590	0	110	001	000
# 
# 595	1	110	001	000
# 
# 600	0	110	001	000
# 
# 605	1	110	001	000
# 
# 610	0	110	001	000
# 
# 615	1	110	001	000
# 
# 620	0	111	001	000
# 
# 625	1	111	001	000
# 
# 630	0	111	001	000
# 
# 635	1	111	001	000
# 
# 640	0	111	001	000
# 
# 645	1	111	001	000
# 
# 650	0	111	001	000
# 
# 655	1	111	001	000
# 
# 660	0	000	010	000
# 
# 665	1	000	010	000
# 
# 670	0	000	010	000
# 
# 675	1	000	010	000
# 
# 680	0	000	010	000
# 
# 685	1	000	010	000
# 
# 690	0	000	010	000
# 
# 695	1	000	010	000
# 
# 700	0	001	010	000
# 
# 705	1	001	010	000
# 
# 710	0	001	010	000
# 
# 715	1	001	010	000
# 
# 720	0	001	010	000
# 
# 725	1	001	010	000
# 
# 730	0	001	010	000
# 
# 735	1	001	010	000
# 
# 740	0	010	010	000
# 
# 745	1	010	010	000
# 
# 750	0	010	010	000
# 
# 755	1	010	010	000
# 
# 760	0	010	010	000
# 
# 765	1	010	010	000
# 
# 770	0	010	010	000
# 
# 775	1	010	010	000
# 
# 780	0	011	010	000
# 
# 785	1	011	010	000
# 
# 790	0	011	010	000
# 
# 795	1	011	010	000
# 
# 800	0	011	010	000
# 
# 805	1	011	010	000
# 
# 810	0	011	010	000
# 
# 815	1	011	010	000
# 
# 820	0	100	010	000
# 
# 825	1	100	010	000
# 
# 830	0	100	010	000
# 
# 835	1	100	010	000
# 
# 840	0	100	010	000
# 
# 845	1	100	010	000
# 
# 850	0	100	010	000
# 
# 855	1	100	010	000
# 
# 860	0	101	010	000
# 
# 865	1	101	010	000
# 
# 870	0	101	010	000
# 
# 875	1	101	010	000
# 
# 880	0	101	010	000
# 
# 885	1	101	010	000
# 
# 890	0	101	010	000
# 
# 895	1	101	010	000
# 
# 900	0	110	010	000
# 
# 905	1	110	010	000
# 
# 910	0	110	010	000
# 
# 915	1	110	010	000
# 
# 920	0	110	010	000
# 
# 925	1	110	010	000
# 
# 930	0	110	010	000
# 
# 935	1	110	010	000
# 
# 940	0	111	010	000
# 
# 945	1	111	010	000
# 
# 950	0	111	010	000
# 
# 955	1	111	010	000
# 
# 960	0	111	010	000
# 
# 965	1	111	010	000
# 
# 970	0	111	010	000
# 
# 975	1	111	010	000
# 
# 980	0	000	011	000
# 
# 985	1	000	011	000
# 
# 990	0	000	011	000
# 
# 995	1	000	011	000
# 
# 1000	0	000	011	000
# 
# 1005	1	000	011	000
# 
# 1010	0	000	011	000
# 
# 1015	1	000	011	000
# 
# 1020	0	001	011	000
# 
# 1025	1	001	011	000
# 
# 1030	0	001	011	000
# 
# 1035	1	001	011	000
# 
# 1040	0	001	011	000
# 
# 1045	1	001	011	000
# 
# 1050	0	001	011	000
# 
# 1055	1	001	011	000
# 
# 1060	0	010	011	000
# 
# 1065	1	010	011	000
# 
# 1070	0	010	011	000
# 
# 1075	1	010	011	000
# 
# 1080	0	010	011	000
# 
# 1085	1	010	011	000
# 
# 1090	0	010	011	000
# 
# 1095	1	010	011	000
# 
# 1100	0	011	011	000
# 
# 1105	1	011	011	000
# 
# 1110	0	011	011	000
# 
# 1115	1	011	011	000
# 
# 1120	0	011	011	000
# 
# 1125	1	011	011	000
# 
# 1130	0	011	011	000
# 
# 1135	1	011	011	000
# 
# 1140	0	100	011	000
# 
# 1145	1	100	011	000
# 
# 1150	0	100	011	000
# 
# 1155	1	100	011	000
# 
# 1160	0	100	011	000
# 
# 1165	1	100	011	000
# 
# 1170	0	100	011	000
# 
# 1175	1	100	011	000
# 
# 1180	0	101	011	000
# 
# 1185	1	101	011	000
# 
# 1190	0	101	011	000
# 
# 1195	1	101	011	000
# 
# 1200	0	101	011	000
# 
# 1205	1	101	011	000
# 
# 1210	0	101	011	000
# 
# 1215	1	101	011	000
# 
# 1220	0	110	011	000
# 
# 1225	1	110	011	000
# 
# 1230	0	110	011	000
# 
# 1235	1	110	011	000
# 
# 1240	0	110	011	000
# 
# 1245	1	110	011	000
# 
# 1250	0	110	011	000
# 
# 1255	1	110	011	000
# 
# 1260	0	111	011	000
# 
# 1265	1	111	011	000
# 
# 1270	0	111	011	000
# 
# 1275	1	111	011	000
# 
# 1280	0	111	011	000
# 
# 1285	1	111	011	000
# 
# 1290	0	111	011	000
# 
# 1295	1	111	011	000
# 
# 1300	0	000	100	000
# 
# 1305	1	000	100	000
# 
# 1310	0	000	100	000
# 
# 1315	1	000	100	000
# 
# 1320	0	000	100	000
# 
# 1325	1	000	100	000
# 
# 1330	0	000	100	000
# 
# 1335	1	000	100	000
# 
# 1340	0	001	100	110
# 
# 1345	1	001	100	110
# 
# 1350	0	001	100	110
# 
# 1355	1	001	100	110
# 
# 1360	0	001	100	110
# 
# 1365	1	001	100	110
# 
# 1370	0	001	100	110
# 
# 1375	1	001	100	110
# 
# 1380	0	010	100	000
# 
# 1385	1	010	100	000
# 
# 1390	0	010	100	000
# 
# 1395	1	010	100	000
# 
# 1400	0	010	100	000
# 
# 1405	1	010	100	000
# 
# 1410	0	010	100	000
# 
# 1415	1	010	100	000
# 
# 1420	0	011	100	110
# 
# 1425	1	011	100	110
# 
# 1430	0	011	100	110
# 
# 1435	1	011	100	110
# 
# 1440	0	011	100	110
# 
# 1445	1	011	100	110
# 
# 1450	0	011	100	110
# 
# 1455	1	011	100	110
# 
# 1460	0	100	100	110
# 
# 1465	1	100	100	110
# 
# 1470	0	100	100	110
# 
# 1475	1	100	100	110
# 
# 1480	0	100	100	110
# 
# 1485	1	100	100	110
# 
# 1490	0	100	100	110
# 
# 1495	1	100	100	110
# 
# 1500	0	101	100	000
# 
# 1505	1	101	100	000
# 
# 1510	0	101	100	000
# 
# 1515	1	101	100	000
# 
# 1520	0	101	100	000
# 
# 1525	1	101	100	000
# 
# 1530	0	101	100	000
# 
# 1535	1	101	100	000
# 
# 1540	0	110	100	110
# 
# 1545	1	110	100	110
# 
# 1550	0	110	100	110
# 
# 1555	1	110	100	110
# 
# 1560	0	110	100	110
# 
# 1565	1	110	100	110
# 
# 1570	0	110	100	110
# 
# 1575	1	110	100	110
# 
# 1580	0	111	100	000
# 
# 1585	1	111	100	000
# 
# 1590	0	111	100	000
# 
# 1595	1	111	100	000
# 
# 1600	0	111	100	000
# 
# 1605	1	111	100	000
# 
# 1610	0	111	100	000
# 
# 1615	1	111	100	000
# 
# 1620	0	000	101	000
# 
# 1625	1	000	101	000
# 
# 1630	0	000	101	000
# 
# 1635	1	000	101	000
# 
# 1640	0	000	101	000
# 
# 1645	1	000	101	000
# 
# 1650	0	000	101	000
# 
# 1655	1	000	101	000
# 
# 1660	0	001	101	110
# 
# 1665	1	001	101	110
# 
# 1670	0	001	101	110
# 
# 1675	1	001	101	110
# 
# 1680	0	001	101	110
# 
# 1685	1	001	101	110
# 
# 1690	0	001	101	110
# 
# 1695	1	001	101	110
# 
# 1700	0	010	101	000
# 
# 1705	1	010	101	000
# 
# 1710	0	010	101	000
# 
# 1715	1	010	101	000
# 
# 1720	0	010	101	000
# 
# 1725	1	010	101	000
# 
# 1730	0	010	101	000
# 
# 1735	1	010	101	000
# 
# 1740	0	011	101	110
# 
# 1745	1	011	101	110
# 
# 1750	0	011	101	110
# 
# 1755	1	011	101	110
# 
# 1760	0	011	101	110
# 
# 1765	1	011	101	110
# 
# 1770	0	011	101	110
# 
# 1775	1	011	101	110
# 
# 1780	0	100	101	110
# 
# 1785	1	100	101	110
# 
# 1790	0	100	101	110
# 
# 1795	1	100	101	110
# 
# 1800	0	100	101	110
# 
# 1805	1	100	101	110
# 
# 1810	0	100	101	110
# 
# 1815	1	100	101	110
# 
# 1820	0	101	101	000
# 
# 1825	1	101	101	000
# 
# 1830	0	101	101	000
# 
# 1835	1	101	101	000
# 
# 1840	0	101	101	000
# 
# 1845	1	101	101	000
# 
# 1850	0	101	101	000
# 
# 1855	1	101	101	000
# 
# 1860	0	110	101	110
# 
# 1865	1	110	101	110
# 
# 1870	0	110	101	110
# 
# 1875	1	110	101	110
# 
# 1880	0	110	101	110
# 
# 1885	1	110	101	110
# 
# 1890	0	110	101	110
# 
# 1895	1	110	101	110
# 
# 1900	0	111	101	000
# 
# 1905	1	111	101	000
# 
# 1910	0	111	101	000
# 
# 1915	1	111	101	000
# 
# 1920	0	111	101	000
# 
# 1925	1	111	101	000
# 
# 1930	0	111	101	000
# 
# 1935	1	111	101	000
# 
# 1940	0	000	110	000
# 
# 1945	1	000	110	000
# 
# 1950	0	000	110	000
# 
# 1955	1	000	110	000
# 
# 1960	0	000	110	000
# 
# 1965	1	000	110	000
# 
# 1970	0	000	110	000
# 
# 1975	1	000	110	000
# 
# 1980	0	001	110	110
# 
# 1985	1	001	110	110
# 
# 1990	0	001	110	110
# 
# 1995	1	001	110	110
# 
# 2000	0	001	110	110
# 
# 2005	1	001	110	110
# 
# 2010	0	001	110	110
# 
# 2015	1	001	110	110
# 
# 2020	0	010	110	000
# 
# 2025	1	010	110	000
# 
# 2030	0	010	110	000
# 
# 2035	1	010	110	000
# 
# 2040	0	010	110	000
# 
# 2045	1	010	110	000
# 
# 2050	0	010	110	000
# 
# 2055	1	010	110	000
# 
# 2060	0	011	110	110
# 
# 2065	1	011	110	110
# 
# 2070	0	011	110	110
# 
# 2075	1	011	110	110
# 
# 2080	0	011	110	110
# 
# 2085	1	011	110	110
# 
# 2090	0	011	110	110
# 
# 2095	1	011	110	110
# 
# 2100	0	100	110	110
# 
# 2105	1	100	110	110
# 
# 2110	0	100	110	110
# 
# 2115	1	100	110	110
# 
# 2120	0	100	110	110
# 
# 2125	1	100	110	110
# 
# 2130	0	100	110	110
# 
# 2135	1	100	110	110
# 
# 2140	0	101	110	000
# 
# 2145	1	101	110	000
# 
# 2150	0	101	110	000
# 
# 2155	1	101	110	000
# 
# 2160	0	101	110	000
# 
# 2165	1	101	110	000
# 
# 2170	0	101	110	000
# 
# 2175	1	101	110	000
# 
# 2180	0	110	110	110
# 
# 2185	1	110	110	110
# 
# 2190	0	110	110	110
# 
# 2195	1	110	110	110
# 
# 2200	0	110	110	110
# 
# 2205	1	110	110	110
# 
# 2210	0	110	110	110
# 
# 2215	1	110	110	110
# 
# 2220	0	111	110	000
# 
# 2225	1	111	110	000
# 
# 2230	0	111	110	000
# 
# 2235	1	111	110	000
# 
# 2240	0	111	110	000
# 
# 2245	1	111	110	000
# 
# 2250	0	111	110	000
# 
# 2255	1	111	110	000
# 
# 2260	0	000	111	000
# 
# 2265	1	000	111	000
# 
# 2270	0	000	111	000
# 
# 2275	1	000	111	000
# 
# 2280	0	000	111	000
# 
# 2285	1	000	111	000
# 
# 2290	0	000	111	000
# 
# 2295	1	000	111	000
# 
# 2300	0	001	111	110
# 
# 2305	1	001	111	110
# 
# 2310	0	001	111	110
# 
# 2315	1	001	111	110
# 
# 2320	0	001	111	110
# 
# 2325	1	001	111	110
# 
# 2330	0	001	111	110
# 
# 2335	1	001	111	110
# 
# 2340	0	010	111	000
# 
# 2345	1	010	111	000
# 
# 2350	0	010	111	000
# 
# 2355	1	010	111	000
# 
# 2360	0	010	111	000
# 
# 2365	1	010	111	000
# 
# 2370	0	010	111	000
# 
# 2375	1	010	111	000
# 
# 2380	0	011	111	110
# 
# 2385	1	011	111	110
# 
# 2390	0	011	111	110
# 
# 2395	1	011	111	110
# 
# 2400	0	011	111	110
# 
# 2405	1	011	111	110
# 
# 2410	0	011	111	110
# 
# 2415	1	011	111	110
# 
# 2420	0	100	111	110
# 
# 2425	1	100	111	110
# 
# 2430	0	100	111	110
# 
# 2435	1	100	111	110
# 
# 2440	0	100	111	110
# 
# 2445	1	100	111	110
# 
# 2450	0	100	111	110
# 
# 2455	1	100	111	110
# 
# 2460	0	101	111	000
# 
# 2465	1	101	111	000
# 
# 2470	0	101	111	000
# 
# 2475	1	101	111	000
# 
# 2480	0	101	111	000
# 
# 2485	1	101	111	000
# 
# 2490	0	101	111	000
# 
# 2495	1	101	111	000
# 
# 2500	0	110	111	110
# 
# 2505	1	110	111	110
# 
# 2510	0	110	111	110
# 
# 2515	1	110	111	110
# 
# 2520	0	110	111	110
# 
# 2525	1	110	111	110
# 
# 2530	0	110	111	110
# 
# 2535	1	110	111	110
# 
# 2540	0	111	111	000
# 
# 2545	1	111	111	000
# 
# 2550	0	111	111	000
# 
# 2555	1	111	111	000
# 
# 2560	0	111	111	000
# 
# 2565	1	111	111	000
# 
# 2570	0	111	111	000
# 
# 2575	1	111	111	000
# 
# 2580	0	000	000	000
# 
# 2585	1	000	000	000
# 
# 2590	0	000	000	000
# 
# 2595	1	000	000	000
# 
# 2600	0	000	000	000
# 
# 2605	1	000	000	000
# 
# 2610	0	000	000	000
# 
# 2615	1	000	000	000
# 
# 2620	0	001	000	000
# 
# 2625	1	001	000	000
# 
# 2630	0	001	000	000
# 
# 2635	1	001	000	000
# 
# 2640	0	001	000	000
# 
# 2645	1	001	000	000
# 
# 2650	0	001	000	000
# 
# 2655	1	001	000	000
# 
# 2660	0	010	000	000
# 
# 2665	1	010	000	000
# 
# 2670	0	010	000	000
# 
# 2675	1	010	000	000
# 
# 2680	0	010	000	000
# 
# 2685	1	010	000	000
# 
# 2690	0	010	000	000
# 
# 2695	1	010	000	000
# 
# 2700	0	011	000	000
# 
# 2705	1	011	000	000
# 
# 2710	0	011	000	000
# 
# 2715	1	011	000	000
# 
# 2720	0	011	000	000
# 
# 2725	1	011	000	000
# 
# 2730	0	011	000	000
# 
# 2735	1	011	000	000
# 
# 2740	0	100	000	000
# 
# 2745	1	100	000	000
# 
# 2750	0	100	000	000
# 
# 2755	1	100	000	000
# 
# 2760	0	100	000	000
# 
# 2765	1	100	000	000
# 
# 2770	0	100	000	000
# 
# 2775	1	100	000	000
# 
# 2780	0	101	000	000
# 
# 2785	1	101	000	000
# 
# 2790	0	101	000	000
# 
# 2795	1	101	000	000
# 
# 2800	0	101	000	000
# 
# 2805	1	101	000	000
# 
# 2810	0	101	000	000
# 
# 2815	1	101	000	000
# 
# 2820	0	110	000	000
# 
# 2825	1	110	000	000
# 
# 2830	0	110	000	000
# 
# 2835	1	110	000	000
# 
# 2840	0	110	000	000
# 
# 2845	1	110	000	000
# 
# 2850	0	110	000	000
# 
# 2855	1	110	000	000
# 
# 2860	0	111	000	000
# 
# 2865	1	111	000	000
# 
# 2870	0	111	000	000
# 
# 2875	1	111	000	000
# 
# 2880	0	111	000	000
# 
# 2885	1	111	000	000
# 
# 2890	0	111	000	000
# 
# 2895	1	111	000	000
# 
# 2900	0	000	001	000
# 
# 2905	1	000	001	000
# 
# 2910	0	000	001	000
# 
# 2915	1	000	001	000
# 
# 2920	0	000	001	000
# 
# 2925	1	000	001	000
# 
# 2930	0	000	001	000
# 
# 2935	1	000	001	000
# 
# 2940	0	001	001	000
# 
# 2945	1	001	001	000
# 
# 2950	0	001	001	000
# 
# 2955	1	001	001	000
# 
# 2960	0	001	001	000
# 
# 2965	1	001	001	000
# 
# 2970	0	001	001	000
# 
# 2975	1	001	001	000
# 
# 2980	0	010	001	000
# 
# 2985	1	010	001	000
# 
# 2990	0	010	001	000
# 
# 2995	1	010	001	000
# 
# 3000	0	010	001	000
# 
# 3005	1	010	001	000
# 
# 3010	0	010	001	000
# 
# 3015	1	010	001	000
# 
# 3020	0	011	001	000
# 
# 3025	1	011	001	000
# 
# 3030	0	011	001	000
# 
# 3035	1	011	001	000
# 
# 3040	0	011	001	000
# 
# 3045	1	011	001	000
# 
# 3050	0	011	001	000
# 
# 3055	1	011	001	000
# 
# 3060	0	100	001	000
# 
# 3065	1	100	001	000
# 
# 3070	0	100	001	000
# 
# 3075	1	100	001	000
# 
# 3080	0	100	001	000
# 
# 3085	1	100	001	000
# 
# 3090	0	100	001	000
# 
# 3095	1	100	001	000
# 
# 3100	0	101	001	000
# 
# 3105	1	101	001	000
# 
# 3110	0	101	001	000
# 
# 3115	1	101	001	000
# 
# 3120	0	101	001	000
# 
# 3125	1	101	001	000
# 
# 3130	0	101	001	000
# 
# 3135	1	101	001	000
# 
# 3140	0	110	001	000
# 
# 3145	1	110	001	000
# 
# 3150	0	110	001	000
# 
# 3155	1	110	001	000
# 
# 3160	0	110	001	000
# 
# 3165	1	110	001	000
# 
# 3170	0	110	001	000
# 
# 3175	1	110	001	000
# 
# 3180	0	111	001	000
# 
# 3185	1	111	001	000
# 
# 3190	0	111	001	000
# 
# 3195	1	111	001	000
# 
# 3200	0	111	001	000
# 
# 3205	1	111	001	000
# 
# 3210	0	111	001	000
# 
# 3215	1	111	001	000
# 
# 3220	0	000	010	000
# 
# 3225	1	000	010	000
# 
# 3230	0	000	010	000
# 
# 3235	1	000	010	000
# 
# 3240	0	000	010	000
# 
# 3245	1	000	010	000
# 
# 3250	0	000	010	000
# 
# 3255	1	000	010	000
# 
# 3260	0	001	010	000
# 
# 3265	1	001	010	000
# 
# 3270	0	001	010	000
# 
# 3275	1	001	010	000
# 
# 3280	0	001	010	000
# 
# 3285	1	001	010	000
# 
# 3290	0	001	010	000
# 
# 3295	1	001	010	000
# 
# 3300	0	010	010	000
# 
# 3305	1	010	010	000
# 
# 3310	0	010	010	000
# 
# 3315	1	010	010	000
# 
# 3320	0	010	010	000
# 
# 3325	1	010	010	000
# 
# 3330	0	010	010	000
# 
# 3335	1	010	010	000
# 
# 3340	0	011	010	000
# 
# 3345	1	011	010	000
# 
# 3350	0	011	010	000
# 
# 3355	1	011	010	000
# 
# 3360	0	011	010	000
# 
# 3365	1	011	010	000
# 
# 3370	0	011	010	000
# 
# 3375	1	011	010	000
# 
# 3380	0	100	010	000
# 
# 3385	1	100	010	000
# 
# 3390	0	100	010	000
# 
# 3395	1	100	010	000
# 
# 3400	0	100	010	000
# 
# 3405	1	100	010	000
# 
# 3410	0	100	010	000
# 
# 3415	1	100	010	000
# 
# 3420	0	101	010	000
# 
# 3425	1	101	010	000
# 
# 3430	0	101	010	000
# 
# 3435	1	101	010	000
# 
# 3440	0	101	010	000
# 
# 3445	1	101	010	000
# 
# 3450	0	101	010	000
# 
# 3455	1	101	010	000
# 
# 3460	0	110	010	000
# 
# 3465	1	110	010	000
# 
# 3470	0	110	010	000
# 
# 3475	1	110	010	000
# 
# 3480	0	110	010	000
# 
# 3485	1	110	010	000
# 
# 3490	0	110	010	000
# 
# 3495	1	110	010	000
# 
# 3500	0	111	010	000
# 
# 3505	1	111	010	000
# 
# 3510	0	111	010	000
# 
# 3515	1	111	010	000
# 
# 3520	0	111	010	000
# 
# 3525	1	111	010	000
# 
# 3530	0	111	010	000
# 
# 3535	1	111	010	000
# 
# 3540	0	000	011	000
# 
# 3545	1	000	011	000
# 
# 3550	0	000	011	000
# 
# 3555	1	000	011	000
# 
# 3560	0	000	011	000
# 
# 3565	1	000	011	000
# 
# 3570	0	000	011	000
# 
# 3575	1	000	011	000
# 
# 3580	0	001	011	000
# 
# 3585	1	001	011	000
# 
# 3590	0	001	011	000
# 
# 3595	1	001	011	000
# 
# 3600	0	001	011	000
# 
# 3605	1	001	011	000
# 
# 3610	0	001	011	000
# 
# 3615	1	001	011	000
# 
# 3620	0	010	011	000
# 
# 3625	1	010	011	000
# 
# 3630	0	010	011	000
# 
# 3635	1	010	011	000
# 
# 3640	0	010	011	000
# 
# 3645	1	010	011	000
# 
# 3650	0	010	011	000
# 
# 3655	1	010	011	000
# 
# 3660	0	011	011	000
# 
# 3665	1	011	011	000
# 
# 3670	0	011	011	000
# 
# 3675	1	011	011	000
# 
# 3680	0	011	011	000
# 
# 3685	1	011	011	000
# 
# 3690	0	011	011	000
# 
# 3695	1	011	011	000
# 
# 3700	0	100	011	000
# 
# 3705	1	100	011	000
# 
# 3710	0	100	011	000
# 
# 3715	1	100	011	000
# 
# 3720	0	100	011	000
# 
# 3725	1	100	011	000
# 
# 3730	0	100	011	000
# 
# 3735	1	100	011	000
# 
# 3740	0	101	011	000
# 
# 3745	1	101	011	000
# 
# 3750	0	101	011	000
# 
# 3755	1	101	011	000
# 
# 3760	0	101	011	000
# 
# 3765	1	101	011	000
# 
# 3770	0	101	011	000
# 
# 3775	1	101	011	000
# 
# 3780	0	110	011	000
# 
# 3785	1	110	011	000
# 
# 3790	0	110	011	000
# 
# 3795	1	110	011	000
# 
# 3800	0	110	011	000
# 
# 3805	1	110	011	000
# 
# 3810	0	110	011	000
# 
# 3815	1	110	011	000
# 
# 3820	0	111	011	000
# 
# 3825	1	111	011	000
# 
# 3830	0	111	011	000
# 
# 3835	1	111	011	000
# 
# 3840	0	111	011	000
# 
# 3845	1	111	011	000
# 
# 3850	0	111	011	000
# 
# 3855	1	111	011	000
# 
# 3860	0	000	100	000
# 
# 3865	1	000	100	000
# 
# 3870	0	000	100	000
# 
# 3875	1	000	100	000
# 
# 3880	0	000	100	000
# 
# 3885	1	000	100	000
# 
# 3890	0	000	100	000
# 
# 3895	1	000	100	000
# 
# 3900	0	001	100	110
# 
# 3905	1	001	100	110
# 
# 3910	0	001	100	110
# 
# 3915	1	001	100	110
# 
# 3920	0	001	100	110
# 
# 3925	1	001	100	110
# 
# 3930	0	001	100	110
# 
# 3935	1	001	100	110
# 
# 3940	0	010	100	000
# 
# 3945	1	010	100	000
# 
# 3950	0	010	100	000
# 
# 3955	1	010	100	000
# 
# 3960	0	010	100	000
# 
# 3965	1	010	100	000
# 
# 3970	0	010	100	000
# 
# 3975	1	010	100	000
# 
# 3980	0	011	100	110
# 
# 3985	1	011	100	110
# 
# 3990	0	011	100	110
# 
# 3995	1	011	100	110
# 
# 4000	0	011	100	110
# 
# 4005	1	011	100	110
# 
# 4010	0	011	100	110
# 
# 4015	1	011	100	110
# 
# 4020	0	100	100	110
# 
# 4025	1	100	100	110
# 
# 4030	0	100	100	110
# 
# 4035	1	100	100	110
# 
# 4040	0	100	100	110
# 
# 4045	1	100	100	110
# 
# 4050	0	100	100	110
# 
# 4055	1	100	100	110
# 
# 4060	0	101	100	000
# 
# 4065	1	101	100	000
# 
# 4070	0	101	100	000
# 
# 4075	1	101	100	000
# 
# 4080	0	101	100	000
# 
# 4085	1	101	100	000
# 
# 4090	0	101	100	000
# 
# 4095	1	101	100	000
# 
# 4100	0	110	100	110
# 
# 4105	1	110	100	110
# 
# 4110	0	110	100	110
# 
# 4115	1	110	100	110
# 
# 4120	0	110	100	110
# 
# 4125	1	110	100	110
# 
# 4130	0	110	100	110
# 
# 4135	1	110	100	110
# 
# 4140	0	111	100	000
# 
# 4145	1	111	100	000
# 
# 4150	0	111	100	000
# 
# 4155	1	111	100	000
# 
# 4160	0	111	100	000
# 
# 4165	1	111	100	000
# 
# 4170	0	111	100	000
# 
# 4175	1	111	100	000
# 
# 4180	0	000	101	000
# 
# 4185	1	000	101	000
# 
# 4190	0	000	101	000
# 
# 4195	1	000	101	000
# 
# 4200	0	000	101	000
# 
# 4205	1	000	101	000
# 
# 4210	0	000	101	000
# 
# 4215	1	000	101	000
# 
# 4220	0	001	101	110
# 
# 4225	1	001	101	110
# 
# 4230	0	001	101	110
# 
# 4235	1	001	101	110
# 
# 4240	0	001	101	110
# 
# 4245	1	001	101	110
# 
# 4250	0	001	101	110
# 
# 4255	1	001	101	110
# 
# 4260	0	010	101	000
# 
# 4265	1	010	101	000
# 
# 4270	0	010	101	000
# 
# 4275	1	010	101	000
# 
# 4280	0	010	101	000
# 
# 4285	1	010	101	000
# 
# 4290	0	010	101	000
# 
# 4295	1	010	101	000
# 
# 4300	0	011	101	110
# 
# 4305	1	011	101	110
# 
# 4310	0	011	101	110
# 
# 4315	1	011	101	110
# 
# 4320	0	011	101	110
# 
# 4325	1	011	101	110
# 
# 4330	0	011	101	110
# 
# 4335	1	011	101	110
# 
# 4340	0	100	101	110
# 
# 4345	1	100	101	110
# 
# 4350	0	100	101	110
# 
# 4355	1	100	101	110
# 
# 4360	0	100	101	110
# 
# 4365	1	100	101	110
# 
# 4370	0	100	101	110
# 
# 4375	1	100	101	110
# 
# 4380	0	101	101	000
# 
# 4385	1	101	101	000
# 
# 4390	0	101	101	000
# 
# 4395	1	101	101	000
# 
# 4400	0	101	101	000
# 
# 4405	1	101	101	000
# 
# 4410	0	101	101	000
# 
# 4415	1	101	101	000
# 
# 4420	0	110	101	110
# 
# 4425	1	110	101	110
# 
# 4430	0	110	101	110
# 
# 4435	1	110	101	110
# 
# 4440	0	110	101	110
# 
# 4445	1	110	101	110
# 
# 4450	0	110	101	110
# 
# 4455	1	110	101	110
# 
# 4460	0	111	101	000
# 
# 4465	1	111	101	000
# 
# 4470	0	111	101	000
# 
# 4475	1	111	101	000
# 
# 4480	0	111	101	000
# 
# 4485	1	111	101	000
# 
# 4490	0	111	101	000
# 
# 4495	1	111	101	000
# 
# 4500	0	000	110	000
# 
# 4505	1	000	110	000
# 
# 4510	0	000	110	000
# 
# 4515	1	000	110	000
# 
# 4520	0	000	110	000
# 
# 4525	1	000	110	000
# 
# 4530	0	000	110	000
# 
# 4535	1	000	110	000
# 
# 4540	0	001	110	110
# 
# 4545	1	001	110	110
# 
# 4550	0	001	110	110
# 
# 4555	1	001	110	110
# 
# 4560	0	001	110	110
# 
# 4565	1	001	110	110
# 
# 4570	0	001	110	110
# 
# 4575	1	001	110	110
# 
# 4580	0	010	110	000
# 
# 4585	1	010	110	000
# 
# 4590	0	010	110	000
# 
# 4595	1	010	110	000
# 
# 4600	0	010	110	000
# 
# 4605	1	010	110	000
# 
# 4610	0	010	110	000
# 
# 4615	1	010	110	000
# 
# 4620	0	011	110	110
# 
# 4625	1	011	110	110
# 
# 4630	0	011	110	110
# 
# 4635	1	011	110	110
# 
# 4640	0	011	110	110
# 
# 4645	1	011	110	110
# 
# 4650	0	011	110	110
# 
# 4655	1	011	110	110
# 
# 4660	0	100	110	110
# 
# 4665	1	100	110	110
# 
# 4670	0	100	110	110
# 
# 4675	1	100	110	110
# 
# 4680	0	100	110	110
# 
# 4685	1	100	110	110
# 
# 4690	0	100	110	110
# 
# 4695	1	100	110	110
# 
# 4700	0	101	110	000
# 
# 4705	1	101	110	000
# 
# 4710	0	101	110	000
# 
# 4715	1	101	110	000
# 
# 4720	0	101	110	000
# 
# 4725	1	101	110	000
# 
# 4730	0	101	110	000
# 
# 4735	1	101	110	000
# 
# 4740	0	110	110	110
# 
# 4745	1	110	110	110
# 
# 4750	0	110	110	110
# 
# 4755	1	110	110	110
# 
# 4760	0	110	110	110
# 
# 4765	1	110	110	110
# 
# 4770	0	110	110	110
# 
# 4775	1	110	110	110
# 
# 4780	0	111	110	000
# 
# 4785	1	111	110	000
# 
# 4790	0	111	110	000
# 
# 4795	1	111	110	000
# 
# 4800	0	111	110	000
# 
# 4805	1	111	110	000
# 
# 4810	0	111	110	000
# 
# 4815	1	111	110	000
# 
# 4820	0	000	111	000
# 
# 4825	1	000	111	000
# 
# 4830	0	000	111	000
# 
# 4835	1	000	111	000
# 
# 4840	0	000	111	000
# 
# 4845	1	000	111	000
# 
# 4850	0	000	111	000
# 
# 4855	1	000	111	000
# 
# 4860	0	001	111	110
# 
# 4865	1	001	111	110
# 
# 4870	0	001	111	110
# 
# 4875	1	001	111	110
# 
# 4880	0	001	111	110
# 
# 4885	1	001	111	110
# 
# 4890	0	001	111	110
# 
# 4895	1	001	111	110
# 
# 4900	0	010	111	000
# 
# 4905	1	010	111	000
# 
# 4910	0	010	111	000
# 
# 4915	1	010	111	000
# 
# 4920	0	010	111	000
# 
# 4925	1	010	111	000
# 
# 4930	0	010	111	000
# 
# 4935	1	010	111	000
# 
# 4940	0	011	111	110
# 
# 4945	1	011	111	110
# 
# 4950	0	011	111	110
# 
# 4955	1	011	111	110
# 
# 4960	0	011	111	110
# 
# 4965	1	011	111	110
# 
# 4970	0	011	111	110
# 
# 4975	1	011	111	110
# 
# 4980	0	100	111	110
# 
# 4985	1	100	111	110
# 
# 4990	0	100	111	110
# 
# 4995	1	100	111	110
# 
# 5000	0	100	111	110
# 
# 5005	1	100	111	110
# 
# 5010	0	100	111	110
# 
# 5015	1	100	111	110
# 
# 5020	0	101	111	000
# 
# 5025	1	101	111	000
# 
# 5030	0	101	111	000
# 
# 5035	1	101	111	000
# 
# 5040	0	101	111	000
# 
# 5045	1	101	111	000
# 
# 5050	0	101	111	000
# 
# 5055	1	101	111	000
# 
# 5060	0	110	111	110
# 
# 5065	1	110	111	110
# 
# 5070	0	110	111	110
# 
# 5075	1	110	111	110
# 
# 5080	0	110	111	110
# 
# 5085	1	110	111	110
# 
# 5090	0	110	111	110
# 
# 5095	1	110	111	110
# 
# 5100	0	111	111	000
# 
# 5105	1	111	111	000
# 
# 5110	0	111	111	000
# 
# 5115	1	111	111	000
# 
# 5120	0	111	111	000
# 
# 5125	1	111	111	000
# 
# 5130	0	111	111	000
# 
# 5135	1	111	111	000
# 
# 5140	0	000	000	000
# 
# 5145	1	000	000	000
# 
# 5150	0	000	000	000
# 
# 5155	1	000	000	000
# 
# 5160	0	000	000	000
# 
# 5165	1	000	000	000
# 
# 5170	0	000	000	000
# 
# 5175	1	000	000	000
# 
# 5180	0	001	000	000
# 
# 5185	1	001	000	000
# 
# 5190	0	001	000	000
# 
# 5195	1	001	000	000
# 
# 5200	0	001	000	000
# 
# 5205	1	001	000	000
# 
# 5210	0	001	000	000
# 
# 5215	1	001	000	000
# 
# 5220	0	010	000	000
# 
# 5225	1	010	000	000
# 
# 5230	0	010	000	000
# 
# 5235	1	010	000	000
# 
# 5240	0	010	000	000
# 
# 5245	1	010	000	000
# 
# 5250	0	010	000	000
# 
# 5255	1	010	000	000
# 
# 5260	0	011	000	000
# 
# 5265	1	011	000	000
# 
# 5270	0	011	000	000
# 
# 5275	1	011	000	000
# 
# 5280	0	011	000	000
# 
# 5285	1	011	000	000
# 
# 5290	0	011	000	000
# 
# 5295	1	011	000	000
# 
# 5300	0	100	000	000
# 
# 5305	1	100	000	000
# 
# 5310	0	100	000	000
# 
# 5315	1	100	000	000
# 
# 5320	0	100	000	000
# 
# 5325	1	100	000	000
# 
# 5330	0	100	000	000
# 
# 5335	1	100	000	000
# 
# 5340	0	101	000	000
# 
# 5345	1	101	000	000
# 
# 5350	0	101	000	000
# 
# 5355	1	101	000	000
# 
# 5360	0	101	000	000
# 
# 5365	1	101	000	000
# 
# 5370	0	101	000	000
# 
# 5375	1	101	000	000
# 
# 5380	0	110	000	000
# 
# 5385	1	110	000	000
# 
# 5390	0	110	000	000
# 
# 5395	1	110	000	000
# 
# 5400	0	110	000	000
# 
# 5405	1	110	000	000
# 
# 5410	0	110	000	000
# 
# 5415	1	110	000	000
# 
# 5420	0	111	000	000
# 
# 5425	1	111	000	000
# 
# 5430	0	111	000	000
# 
# 5435	1	111	000	000
# 
# 5440	0	111	000	000
# 
# 5445	1	111	000	000
# 
# 5450	0	111	000	000
# 
# 5455	1	111	000	000
# 
# 5460	0	000	001	000
# 
# 5465	1	000	001	000
# 
# 5470	0	000	001	000
# 
# 5475	1	000	001	000
# 
# 5480	0	000	001	000
# 
# 5485	1	000	001	000
# 
# 5490	0	000	001	000
# 
# 5495	1	000	001	000
# 
# 5500	0	001	001	000
# 
# 5505	1	001	001	000
# 
# 5510	0	001	001	000
# 
# 5515	1	001	001	000
# 
# 5520	0	001	001	000
# 
# 5525	1	001	001	000
# 
# 5530	0	001	001	000
# 
# 5535	1	001	001	000
# 
# 5540	0	010	001	000
# 
# 5545	1	010	001	000
# 
# 5550	0	010	001	000
# 
# 5555	1	010	001	000
# 
# 5560	0	010	001	000
# 
# 5565	1	010	001	000
# 
# 5570	0	010	001	000
# 
# 5575	1	010	001	000
# 
# 5580	0	011	001	000
# 
# 5585	1	011	001	000
# 
# 5590	0	011	001	000
# 
# 5595	1	011	001	000
# 
# 5600	0	011	001	000
# 
# 5605	1	011	001	000
# 
# 5610	0	011	001	000
# 
# 5615	1	011	001	000
# 
# 5620	0	100	001	000
# 
# 5625	1	100	001	000
# 
# 5630	0	100	001	000
# 
# 5635	1	100	001	000
# 
# 5640	0	100	001	000
# 
# 5645	1	100	001	000
# 
# 5650	0	100	001	000
# 
# 5655	1	100	001	000
# 
# 5660	0	101	001	000
# 
# 5665	1	101	001	000
# 
# 5670	0	101	001	000
# 
# 5675	1	101	001	000
# 
# 5680	0	101	001	000
# 
# 5685	1	101	001	000
# 
# 5690	0	101	001	000
# 
# 5695	1	101	001	000
# 
# 5700	0	110	001	000
# 
# 5705	1	110	001	000
# 
# 5710	0	110	001	000
# 
# 5715	1	110	001	000
# 
# 5720	0	110	001	000
# 
# 5725	1	110	001	000
# 
# 5730	0	110	001	000
# 
# 5735	1	110	001	000
# 
# 5740	0	111	001	000
# 
# 5745	1	111	001	000
# 
# 5750	0	111	001	000
# 
# 5755	1	111	001	000
# 
# 5760	0	111	001	000
# 
# 5765	1	111	001	000
# 
# 5770	0	111	001	000
# 
# 5775	1	111	001	000
# 
# 5780	0	000	010	000
# 
# 5785	1	000	010	000
# 
# 5790	0	000	010	000
# 
# 5795	1	000	010	000
# 
# 5800	0	000	010	000
# 
# 5805	1	000	010	000
# 
# 5810	0	000	010	000
# 
# 5815	1	000	010	000
# 
# 5820	0	001	010	000
# 
# 5825	1	001	010	000
# 
# 5830	0	001	010	000
# 
# 5835	1	001	010	000
# 
# 5840	0	001	010	000
# 
# 5845	1	001	010	000
# 
# 5850	0	001	010	000
# 
# 5855	1	001	010	000
# 
# 5860	0	010	010	000
# 
# 5865	1	010	010	000
# 
# 5870	0	010	010	000
# 
# 5875	1	010	010	000
# 
# 5880	0	010	010	000
# 
# 5885	1	010	010	000
# 
# 5890	0	010	010	000
# 
# 5895	1	010	010	000
# 
# 5900	0	011	010	000
# 
# 5905	1	011	010	000
# 
# 5910	0	011	010	000
# 
# 5915	1	011	010	000
# 
# 5920	0	011	010	000
# 
# 5925	1	011	010	000
# 
# 5930	0	011	010	000
# 
# 5935	1	011	010	000
# 
# 5940	0	100	010	000
# 
# 5945	1	100	010	000
# 
# 5950	0	100	010	000
# 
# 5955	1	100	010	000
# 
# 5960	0	100	010	000
# 
# 5965	1	100	010	000
# 
# 5970	0	100	010	000
# 
# 5975	1	100	010	000
# 
# 5980	0	101	010	000
# 
# 5985	1	101	010	000
# 
# 5990	0	101	010	000
# 
# 5995	1	101	010	000
# 
# 6000	0	101	010	000
# 
# 6005	1	101	010	000
# 
# 6010	0	101	010	000
# 
# 6015	1	101	010	000
# 
# 6020	0	110	010	000
# 
# 6025	1	110	010	000
# 
# 6030	0	110	010	000
# 
# 6035	1	110	010	000
# 
# 6040	0	110	010	000
# 
# 6045	1	110	010	000
# 
# 6050	0	110	010	000
# 
# 6055	1	110	010	000
# 
# 6060	0	111	010	000
# 
# 6065	1	111	010	000
# 
# 6070	0	111	010	000
# 
# 6075	1	111	010	000
# 
# 6080	0	111	010	000
# 
# 6085	1	111	010	000
# 
# 6090	0	111	010	000
# 
# 6095	1	111	010	000
# 
# 6100	0	000	011	000
# 
# 6105	1	000	011	000
# 
# 6110	0	000	011	000
# 
# 6115	1	000	011	000
# 
# 6120	0	000	011	000
# 
# 6125	1	000	011	000
# 
# 6130	0	000	011	000
# 
# 6135	1	000	011	000
# 
# 6140	0	001	011	000
# 
# 6145	1	001	011	000
# 
# 6150	0	001	011	000